 Gaussian 16, Revision C.01,
 Gaussian 16:  ES64L-G16RevC.01  3-Jul-2019

 ----------------------------------------------------------------------
 # uM062X/Def2TZVP guess=read geom=check opt=(calcfc,ts,noeigen,maxstep
 =5) freq=noraman
 ----------------------------------------------------------------------

 -------------------
 Title Card Required
 -------------------
 Structure from the checkpoint file:  "Int23.chk"
 Charge =  0 Multiplicity = 1

 SCF Done:  E(UM062X) =  -390.465472277     A.U. after    1 cycles
 SCF Done:  E(UM062X) =  -390.466704343     A.U. after   13 cycles
 SCF Done:  E(UM062X) =  -390.466704710     A.U. after   11 cycles
 Optimization completed.
    -- Stationary point found.
 Normal termination of Gaussian 16 at Wed Nov 24 01:48:07 2021.

 --------------------------------------------------------------------
 #N Geom=AllCheck Guess=TCheck SCRF=Check GenChk UM062X/def2TZVP Freq
 --------------------------------------------------------------------

 Structure from the checkpoint file:  "Int23.chk"
 -------------------
 Title Card Required
 -------------------
 Charge =  0 Multiplicity = 1

                         Standard orientation:
 ---------------------------------------------------------------------
 Center     Atomic      Atomic             Coordinates (Angstroms)
 Number     Number       Type             X           Y           Z
 ---------------------------------------------------------------------
      1          6           0       -0.084342    1.440102    0.852036
      2          6           0       -1.317455    1.263579    0.010998
      3          6           0       -1.879248    0.037349   -0.300184
      4          6           0       -1.229587   -1.248181    0.183379
      5          6           0       -0.181732   -1.003850    1.277381
      6          6           0        0.693047    0.147686    0.870350
      7          6           0        1.846878   -0.075755   -0.060145
      8          6           0        2.403946    1.112943   -0.786048
      9          6           0        2.069925   -1.410265   -0.710818
     10          1           0       -1.804434    2.157567   -0.365373
     11          1           0       -2.004769   -1.930084    0.540073
     12          1           0        0.382491   -1.916276    1.469962
     13          1           0       -0.691737   -0.745813    2.210175
     14          1           0        1.946721    0.051133    1.231755
     15          1           0        1.720408    1.447358   -1.579409
     16          1           0        2.572830    1.964306   -0.124935
     17          1           0        3.357383    0.863450   -1.252714
     18          1           0        1.777584   -2.248065   -0.080214
     19          1           0        3.120529   -1.541831   -0.974091
     20          1           0        1.489761   -1.483577   -1.641738
     21          1           0        0.500408    2.275219    0.465542
     22          6           0       -3.030013   -0.049073   -1.063175
     23          1           0       -0.374101    1.721139    1.873376
     24          1           0       -0.752131   -1.735825   -0.671332
     25          1           0       -3.512910    0.839749   -1.445964
     26          1           0       -3.476543   -1.005676   -1.297759
 ---------------------------------------------------------------------

 SCF Done:  E(UM062X) =  -390.466704710     A.U. after    1 cycles

 The electronic state is 1-A.
 Alpha  occ. eigenvalues --  -10.54661 -10.54369 -10.54125 -10.53761 -10.53621
 Alpha  occ. eigenvalues --  -10.53271 -10.53232 -10.52733 -10.52607 -10.52469
 Alpha  occ. eigenvalues --   -0.95947  -0.90804  -0.84612  -0.84022  -0.78241
 Alpha  occ. eigenvalues --   -0.76087  -0.70244  -0.69703  -0.61523  -0.56381
 Alpha  occ. eigenvalues --   -0.55925  -0.52528  -0.51689  -0.50509  -0.50047
 Alpha  occ. eigenvalues --   -0.48058  -0.46450  -0.45777  -0.44868  -0.44508
 Alpha  occ. eigenvalues --   -0.42987  -0.42488  -0.41760  -0.39590  -0.36740
 Alpha  occ. eigenvalues --   -0.33958  -0.31635  -0.17026
 Alpha virt. eigenvalues --   -0.03492   0.05564   0.08290   0.09137   0.09496
 Alpha virt. eigenvalues --    0.09754   0.11084   0.11607   0.12368   0.12936
 Alpha virt. eigenvalues --    0.13992   0.14752   0.14941   0.16300   0.17103

  Beta  occ. eigenvalues --  -10.54252 -10.53997 -10.53963 -10.53915 -10.53716
  Beta  occ. eigenvalues --  -10.53271 -10.53217 -10.52870 -10.52735 -10.52634
  Beta  occ. eigenvalues --   -0.95462  -0.90428  -0.84544  -0.84316  -0.78059
  Beta  occ. eigenvalues --   -0.76118  -0.70720  -0.69992  -0.61353  -0.56014
  Beta  occ. eigenvalues --   -0.55341  -0.52095  -0.51560  -0.50720  -0.49768
  Beta  occ. eigenvalues --   -0.48141  -0.46181  -0.45791  -0.44449  -0.44167
  Beta  occ. eigenvalues --   -0.43115  -0.42681  -0.41539  -0.39324  -0.36460
  Beta  occ. eigenvalues --   -0.34951  -0.32214  -0.22645
  Beta virt. eigenvalues --    0.00975   0.05343   0.07060   0.08915   0.09138
  Beta virt. eigenvalues --    0.09742   0.11037   0.11519   0.12245   0.12570
  Beta virt. eigenvalues --    0.13902   0.14685   0.14807   0.16268   0.17043

 Mulliken charges and spin densities:
               1          2
     1  C   -0.261588   0.024171
     2  C   -0.207365  -0.607152
     3  C    0.171267   0.248345
     4  C   -0.338078  -0.008643
     5  C   -0.368944  -0.031319
     6  C   -0.094044   0.520085
     7  C   -0.075752   0.534393
     8  C   -0.483285  -0.049693
     9  C   -0.454942  -0.045243
    10  H    0.139221   0.025834
    11  H    0.151772   0.009196
    12  H    0.169380   0.005992
    13  H    0.157887   0.003752
    14  H    0.235337  -0.091115
    15  H    0.156097   0.036677
    16  H    0.150576   0.012437
    17  H    0.142632   0.003757
    18  H    0.145554   0.006011
    19  H    0.148803   0.003550
    20  H    0.150435   0.043714
    21  H    0.145097  -0.013213
    22  C   -0.375731  -0.672101
    23  H    0.155236  -0.028815
    24  H    0.166612   0.011425
    25  H    0.132327   0.028844
    26  H    0.141497   0.029112
 Sum of Mulliken charges =  -0.00000  -0.00000

 Dipole moment (field-independent basis, Debye):
    X=              0.5361    Y=             -0.0889    Z=              0.1687  Tot=              0.5690
 Quadrupole moment (field-independent basis, Debye-Ang):
   XX=            -65.8975   YY=            -61.7301   ZZ=            -66.0388
   XY=              0.2965   XZ=              0.0715   YZ=             -0.2621

  Exact polarizability:     148.302       5.579     115.195       8.250       4.188     105.323
 Approx polarizability:     157.254       7.318     141.229       8.538       6.914     136.741

 ******    1 imaginary frequencies (negative Signs) ******

                      1                      2                      3
                      A                      A                      A
 Frequencies --  -1880.7770                41.4949                63.2914
 Red. masses --      1.1224                 3.1534                 2.6454
 Frc consts  --      2.3393                 0.0032                 0.0062
 IR Inten    --     64.4480                 0.0726                 0.0018

                      4                      5                      6
                      A                      A                      A
 Frequencies --    142.9000               173.1254               202.7545
 Red. masses --      2.1424                 2.6413                 1.2168
 Frc consts  --      0.0258                 0.0466                 0.0295
 IR Inten    --      0.8519                 0.1894                 0.2473

                      7                      8                      9
                      A                      A                      A
 Frequencies --    240.2092               311.6982               328.8412
 Red. masses --      1.1691                 1.9803                 2.3560
 Frc consts  --      0.0397                 0.1134                 0.1501
 IR Inten    --      0.2196                 2.4048                 3.0547

                     10                     11                     12
                      A                      A                      A
 Frequencies --    350.1663               389.0793               410.7876
 Red. masses --      2.5002                 2.0490                 2.1286
 Frc consts  --      0.1806                 0.1828                 0.2116
 IR Inten    --      1.1509                 0.0113                 1.6815

                     13                     14                     15
                      A                      A                      A
 Frequencies --    416.2920               462.3463               487.4778
 Red. masses --      2.6208                 2.4226                 3.1157
 Frc consts  --      0.2676                 0.3051                 0.4362
 IR Inten    --      0.2466                10.9423                 3.6171

                     16                     17                     18
                      A                      A                      A
 Frequencies --    539.7586               550.9499               671.6844
 Red. masses --      1.6521                 1.6483                 3.4590
 Frc consts  --      0.2836                 0.2948                 0.9195
 IR Inten    --      5.1396                 0.6824                13.0644

                     19                     20                     21
                      A                      A                      A
 Frequencies --    688.3594               750.2629               782.1032
 Red. masses --      1.7515                 1.7073                 2.0245
 Frc consts  --      0.4890                 0.5662                 0.7296
 IR Inten    --      3.3081                 1.8477                10.6881

                     22                     23                     24
                      A                      A                      A
 Frequencies --    789.9662               869.4035               917.3829
 Red. masses --      1.7058                 2.3686                 2.0295
 Frc consts  --      0.6272                 1.0548                 1.0064
 IR Inten    --     42.4465                 4.8002                 8.7433

                     25                     26                     27
                      A                      A                      A
 Frequencies --    922.4280               954.4195               965.7868
 Red. masses --      1.8678                 1.3328                 1.8682
 Frc consts  --      0.9364                 0.7153                 1.0267
 IR Inten    --      2.2000                 0.4550                 2.4746

                     28                     29                     30
                      A                      A                      A
 Frequencies --    998.6531              1003.1463              1028.4932
 Red. masses --      1.3489                 1.7017                 1.7823
 Frc consts  --      0.7926                 1.0089                 1.1108
 IR Inten    --      1.2234                 0.6000                 0.0750

                     31                     32                     33
                      A                      A                      A
 Frequencies --   1078.2410              1088.4471              1103.2515
 Red. masses --      1.7536                 1.5720                 1.6470
 Frc consts  --      1.2012                 1.0973                 1.1811
 IR Inten    --      2.4592                 5.9922                14.6523

                     34                     35                     36
                      A                      A                      A
 Frequencies --   1140.6965              1172.9547              1188.2792
 Red. masses --      1.5790                 2.2267                 1.2234
 Frc consts  --      1.2105                 1.8050                 1.0178
 IR Inten    --      1.7613                12.1132                 3.7179

                     37                     38                     39
                      A                      A                      A
 Frequencies --   1224.2748              1245.4801              1281.8164
 Red. masses --      1.3912                 1.8626                 1.8190
 Frc consts  --      1.2286                 1.7023                 1.7609
 IR Inten    --      2.1815                 6.4340                 2.4508

                     40                     41                     42
                      A                      A                      A
 Frequencies --   1285.4417              1319.8418              1339.7925
 Red. masses --      1.6908                 1.7851                 1.4660
 Frc consts  --      1.6461                 1.8321                 1.5505
 IR Inten    --      3.6240                 2.8442                 0.4524

                     43                     44                     45
                      A                      A                      A
 Frequencies --   1356.9426              1393.4303              1401.8953
 Red. masses --      1.5056                 2.3397                 1.3611
 Frc consts  --      1.6334                 2.6765                 1.5760
 IR Inten    --      1.6679                16.3045                 5.4267

                     46                     47                     48
                      A                      A                      A
 Frequencies --   1412.6682              1419.9810              1441.0113
 Red. masses --      1.4105                 1.7040                 1.9837
 Frc consts  --      1.6584                 2.0244                 2.4269
 IR Inten    --      3.1950                 2.2106                 9.9761

                     49                     50                     51
                      A                      A                      A
 Frequencies --   1472.4822              1475.0758              1482.4116
 Red. masses --      1.0912                 1.0739                 1.0740
 Frc consts  --      1.3940                 1.3767                 1.3905
 IR Inten    --      0.7066                 8.8146                 9.4192

                     52                     53                     54
                      A                      A                      A
 Frequencies --   1486.2744              1492.7405              1504.7521
 Red. masses --      1.0566                 1.0645                 1.1089
 Frc consts  --      1.3752                 1.3976                 1.4794
 IR Inten    --      0.7279                11.7011                11.2328

                     55                     56                     57
                      A                      A                      A
 Frequencies --   1509.8408              1523.6556              2183.9179
 Red. masses --      1.0786                 1.8225                 1.0786
 Frc consts  --      1.4487                 2.4928                 3.0311
 IR Inten    --     14.4306                12.2179                 0.8746

                     58                     59                     60
                      A                      A                      A
 Frequencies --   2993.5628              2997.3276              3003.4689
 Red. masses --      1.0572                 1.0567                 1.0731
 Frc consts  --      5.5817                 5.5934                 5.7035
 IR Inten    --     27.3603                50.8209                25.6844

                     61                     62                     63
                      A                      A                      A
 Frequencies --   3055.1119              3060.8667              3091.2505
 Red. masses --      1.0691                 1.0598                 1.0787
 Frc consts  --      5.8793                 5.8500                 6.0731
 IR Inten    --     22.4900                19.2712                19.0045

                     64                     65                     66
                      A                      A                      A
 Frequencies --   3097.4736              3101.5275              3113.1340
 Red. masses --      1.0839                 1.0947                 1.0856
 Frc consts  --      6.1273                 6.2045                 6.1990
 IR Inten    --     20.9472                15.9466                14.9874

                     67                     68                     69
                      A                      A                      A
 Frequencies --   3118.9899              3133.3158              3152.9860
 Red. masses --      1.0975                 1.1005                 1.0966
 Frc consts  --      6.2905                 6.3658                 6.4232
 IR Inten    --     28.8009                21.2897                17.1675

                     70                     71                     72
                      A                      A                      A
 Frequencies --   3167.0678              3174.1874              3268.3422
 Red. masses --      1.0713                 1.0676                 1.1179
 Frc consts  --      6.3312                 6.3374                 7.0355
 IR Inten    --      9.2700                26.3561                 6.4091

 - Thermochemistry -
 -------------------
 Temperature   298.150 Kelvin.  Pressure   1.00000 Atm.
 Atom     1 has atomic number  6 and mass  12.00000

 Molecular mass:   136.12520 amu.
 Principal axes and moments of inertia in atomic units:
                           1         2         3
     Eigenvalues --   881.479961870.338212103.44471
           X            0.99996   0.00568  -0.00665
           Y           -0.00569   0.99998  -0.00279
           Z            0.00663   0.00283   0.99997
 This molecule is an asymmetric top.
 Rotational symmetry number  1.
 Warning -- assumption of classical behavior for rotation
           may cause significant error
 Rotational temperatures (Kelvin)      0.09826     0.04631     0.04118
 Rotational constants (GHZ):           2.04740     0.96493     0.85799
    1 imaginary frequencies ignored.
 Zero-point vibrational energy     598177.5 (Joules/Mol)
                                  142.96786 (Kcal/Mol)
 Warning -- explicit consideration of  16 degrees of freedom as
           vibrations may cause significant error
 Vibrational temperatures:     59.70    91.06   205.60   249.09   291.72
          (Kelvin)            345.61   448.46   473.13   503.81   559.80
                              591.03   598.95   665.21   701.37   776.59
                              792.69   966.40   990.40  1079.46  1125.27
                             1136.59  1250.88  1319.91  1327.17  1373.20
                             1389.55  1436.84  1443.30  1479.77  1551.35
                             1566.03  1587.33  1641.21  1687.62  1709.67
                             1761.46  1791.97  1844.25  1849.46  1898.96
                             1927.66  1952.34  2004.84  2017.01  2032.51
                             2043.04  2073.29  2118.57  2122.31  2132.86
                             2138.42  2147.72  2165.00  2172.32  2192.20
                             3142.17  4307.07  4312.49  4321.32  4395.62
                             4403.90  4447.62  4456.57  4462.41  4479.11
                             4487.53  4508.14  4536.44  4556.70  4566.95
                             4702.42

 Zero-point correction=                           0.227834 (Hartree/Particle)
 Thermal correction to Energy=                    0.238728
 Thermal correction to Enthalpy=                  0.239672
 Thermal correction to Gibbs Free Energy=         0.191669
 Sum of electronic and zero-point Energies=           -390.238871
 Sum of electronic and thermal Energies=              -390.227977
 Sum of electronic and thermal Enthalpies=            -390.227033
 Sum of electronic and thermal Free Energies=         -390.275036

                     E (Thermal)             CV                S
                      KCal/Mol        Cal/Mol-Kelvin    Cal/Mol-Kelvin
 Total                  149.804             42.448            101.031
 Electronic               0.000              0.000              0.000
 Translational            0.889              2.981             40.637
 Rotational               0.889              2.981             29.629
 Vibrational            148.027             36.486             30.764
 Vibration     1          0.594              1.981              5.186
 Vibration     2          0.597              1.972              4.352
 Vibration     3          0.616              1.910              2.765
 Vibration     4          0.627              1.876              2.401
 Vibration     5          0.639              1.836              2.108
 Vibration     6          0.657              1.779              1.801
 Vibration     7          0.700              1.651              1.353
 Vibration     8          0.712              1.618              1.266
 Vibration     9          0.727              1.575              1.165
 Vibration    10          0.757              1.494              1.004
 Vibration    11          0.775              1.447              0.924
 Vibration    12          0.780              1.435              0.905
 Vibration    13          0.820              1.334              0.759
 Vibration    14          0.843              1.278              0.690
 Vibration    15          0.895              1.162              0.566
 Vibration    16          0.906              1.138              0.542

 Optimization completed.
    -- Stationary point found.
 Normal termination of Gaussian 16 at Wed Nov 24 02:36:48 2021.
