 Gaussian 16, Revision C.01,
 Gaussian 16:  ES64L-G16RevC.01  3-Jul-2019

 -------------------------------------------------
 # M062X/Def2TZVP freq=noraman
 -------------------------------------------------

 Structure from the checkpoint file:  "/gpfs/summit/scratch/jvalegre@colostate.edu/9187674/Gau-254305.chk"
 -------------------
 Title Card Required
 -------------------
 Charge =  0 Multiplicity = 1

                         Standard orientation:
 ---------------------------------------------------------------------
 Center     Atomic      Atomic             Coordinates (Angstroms)
 Number     Number       Type             X           Y           Z
 ---------------------------------------------------------------------
      1          6           0       -2.411494    0.002508    0.004738
      2          6           0       -0.907574    0.007097   -0.005945
      3          6           0       -0.189636    1.198213   -0.004451
      4          6           0        1.199526    1.195288    0.000984
      5          6           0        1.893202   -0.005055    0.004325
      6          6           0        1.187841   -1.201915    0.001021
      7          6           0       -0.198154   -1.192724   -0.004541
      8          1           0       -2.791438   -0.347644    0.966621
      9          1           0       -2.810660    1.000638   -0.170268
     10          1           0       -2.806893   -0.662897   -0.763846
     11          1           0       -0.724831    2.140596   -0.009060
     12          1           0        1.738954    2.133875    0.000926
     13          1           0        2.975336   -0.010125    0.007136
     14          1           0        1.720009   -2.144658    0.000941
     15          1           0       -0.742741   -2.130258   -0.009245
 ---------------------------------------------------------------------

 SCF Done:  E(RM062X) =  -271.535017175     A.U. after    1 cycles

 The electronic state is 1-A.
 Alpha  occ. eigenvalues --  -10.54668 -10.53792 -10.53761 -10.53536 -10.53512
 Alpha  occ. eigenvalues --  -10.53501 -10.53109  -0.96222  -0.86996  -0.84011
 Alpha  occ. eigenvalues --   -0.77567  -0.68704  -0.66371  -0.58600  -0.52819
 Alpha  occ. eigenvalues --   -0.52284  -0.48993  -0.48431  -0.47152  -0.44834
 Alpha  occ. eigenvalues --   -0.42508  -0.39739  -0.39486  -0.30609  -0.29580
 Alpha virt. eigenvalues --    0.02297   0.02854   0.07748   0.09346   0.10796
 Alpha virt. eigenvalues --    0.12651   0.13757   0.14405   0.15312   0.16556
 Alpha virt. eigenvalues --    0.18538   0.19309   0.20526   0.21945   0.23078

 Mulliken charges:
               1
     1  C   -0.477343
     2  C    0.126625
     3  C   -0.181752
     4  C   -0.139310
     5  C   -0.160793
     6  C   -0.135873
     7  C   -0.181875
     8  H    0.157010
     9  H    0.138224
    10  H    0.152408
    11  H    0.139288
    12  H    0.139600
    13  H    0.140865
    14  H    0.139776
    15  H    0.143150
 Sum of Mulliken charges =   0.00000

 Dipole moment (field-independent basis, Debye):
    X=             -0.3691    Y=             -0.0364    Z=              0.0186  Tot=              0.3714
 Quadrupole moment (field-independent basis, Debye-Ang):
   XX=            -38.2761   YY=            -38.6341   ZZ=            -46.2350
   XY=              0.0566   XZ=             -0.0145   YZ=              0.0011

  Exact polarizability:      97.982       0.481      85.146      -0.142       0.005      48.171
 Approx polarizability:     118.396       0.772     114.167      -0.125      -0.000      64.568

                      1                      2                      3
                      A                      A                      A
 Frequencies --     -19.5693               212.7591               346.3539
 Red. masses --      1.0460                 2.9166                 2.5066
 Frc consts  --      0.0002                 0.0778                 0.1772
 IR Inten    --      0.1849                 2.2640                 0.3562

                      4                      5                      6
                      A                      A                      A
 Frequencies --    414.7825               477.1587               529.7069
 Red. masses --      2.8933                 2.6661                 5.0794
 Frc consts  --      0.2933                 0.3576                 0.8397
 IR Inten    --      0.0105                 9.8216                 0.4917

                      7                      8                      9
                      A                      A                      A
 Frequencies --    635.7865               720.0433               754.4379
 Red. masses --      6.3282                 2.0877                 1.4387
 Frc consts  --      1.5071                 0.6377                 0.4825
 IR Inten    --      0.0820                27.1980                50.9329

                     10                     11                     12
                      A                      A                      A
 Frequencies --    808.5109               871.4374               926.8942
 Red. masses --      4.4303                 1.2502                 1.3010
 Frc consts  --      1.7063                 0.5594                 0.6586
 IR Inten    --      0.4701                 0.0076                 0.3560

                     13                     14                     15
                      A                      A                      A
 Frequencies --    989.1857              1005.1888              1010.6937
 Red. masses --      1.3700                 1.4883                 1.2863
 Frc consts  --      0.7898                 0.8860                 0.7742
 IR Inten    --      0.0001                 1.3536                 0.0155

                     16                     17                     18
                      A                      A                      A
 Frequencies --   1024.2795              1065.0087              1068.2426
 Red. masses --      5.0800                 2.1439                 1.5706
 Frc consts  --      3.1401                 1.4327                 1.0560
 IR Inten    --      0.3854                 3.0234                 4.1266

                     19                     20                     21
                      A                      A                      A
 Frequencies --   1118.7315              1177.3721              1205.4590
 Red. masses --      1.4247                 1.1448                 1.1183
 Frc consts  --      1.0506                 0.9350                 0.9575
 IR Inten    --      5.8101                 0.0422                 0.3675

                     22                     23                     24
                      A                      A                      A
 Frequencies --   1247.0001              1319.1853              1356.5222
 Red. masses --      2.7831                 4.7411                 1.3490
 Frc consts  --      2.5498                 4.8612                 1.4626
 IR Inten    --      0.5490                 0.3868                 0.0513

                     25                     26                     27
                      A                      A                      A
 Frequencies --   1414.6458              1478.1673              1489.8912
 Red. masses --      1.2778                 1.3962                 1.0479
 Frc consts  --      1.5066                 1.7974                 1.3706
 IR Inten    --      1.2102                 0.5201                 6.9957

                     28                     29                     30
                      A                      A                      A
 Frequencies --   1512.0024              1545.0981              1659.5226
 Red. masses --      1.5031                 2.4498                 5.7848
 Frc consts  --      2.0247                 3.4458                 9.3865
 IR Inten    --     13.7810                14.9368                 0.3842

                     31                     32                     33
                      A                      A                      A
 Frequencies --   1682.0651              3063.8836              3124.1415
 Red. masses --      6.0905                 1.0372                 1.0998
 Frc consts  --     10.1528                 5.7366                 6.3246
 IR Inten    --      8.5268                20.1522                10.1298

                     34                     35                     36
                      A                      A                      A
 Frequencies --   3149.3538              3190.9725              3195.3187
 Red. masses --      1.1021                 1.0877                 1.0876
 Frc consts  --      6.4405                 6.5254                 6.5426
 IR Inten    --     11.3318                 5.9295                 4.9274

                     37                     38                     39
                      A                      A                      A
 Frequencies --   3207.5588              3216.8126              3228.1753
 Red. masses --      1.0898                 1.0941                 1.0984
 Frc consts  --      6.6063                 6.6704                 6.7440
 IR Inten    --      3.5980                19.8379                 8.8498

 - Thermochemistry -
 -------------------
 Temperature   298.150 Kelvin.  Pressure   1.00000 Atm.
 Atom     1 has atomic number  6 and mass  12.00000

 Molecular mass:    92.06260 amu.
 Principal axes and moments of inertia in atomic units:
                           1         2         3
     Eigenvalues --   322.57762 710.658231022.09021
           X            1.00000   0.00038  -0.00020
           Y           -0.00038   1.00000   0.00000
           Z            0.00020  -0.00000   1.00000
 This molecule is an asymmetric top.
 Rotational symmetry number  1.
 Rotational temperatures (Kelvin)      0.26851     0.12188     0.08474
 Rotational constants (GHZ):           5.59475     2.53953     1.76574
 Zero-point vibrational energy     337717.3 (Joules/Mol)
                                   80.71637 (Kcal/Mol)
 Warning -- explicit consideration of   6 degrees of freedom as
           vibrations may cause significant error
 Vibrational temperatures:     28.16   306.11   498.33   596.78   686.52
          (Kelvin)            762.13   914.75  1035.98  1085.47  1163.27
                             1253.80  1333.59  1423.22  1446.24  1454.16
                             1473.71  1532.31  1536.96  1609.61  1693.98
                             1734.39  1794.16  1898.01  1951.73  2035.36
                             2126.75  2143.62  2175.43  2223.05  2387.68
                             2420.12  4408.25  4494.94  4531.22  4591.10
                             4597.35  4614.96  4628.28  4644.62

 Zero-point correction=                           0.128630 (Hartree/Particle)
 Thermal correction to Energy=                    0.134855
 Thermal correction to Enthalpy=                  0.135799
 Thermal correction to Gibbs Free Energy=         0.097442
 Sum of electronic and zero-point Energies=           -271.406387
 Sum of electronic and thermal Energies=              -271.400162
 Sum of electronic and thermal Enthalpies=            -271.399218
 Sum of electronic and thermal Free Energies=         -271.437575

                     E (Thermal)             CV                S
                      KCal/Mol        Cal/Mol-Kelvin    Cal/Mol-Kelvin
 Total                   84.623             23.091             80.729
 Electronic               0.000              0.000              0.000
 Translational            0.889              2.981             39.471
 Rotational               0.889              2.981             26.952
 Vibrational             82.845             17.129             14.306
 Vibration     1          0.593              1.986              6.677
 Vibration     2          0.644              1.821              2.020
 Vibration     3          0.724              1.583              1.183
 Vibration     4          0.778              1.438              0.910
 Vibration     5          0.834              1.301              0.718
 Vibration     6          0.885              1.184              0.588

                           ! Non-Optimized Parameters !
 Normal termination of Gaussian 16 at Wed Nov 24 09:46:45 2021.
