 Gaussian 16, Revision C.01,
 Gaussian 16:  ES64L-G16RevC.01  3-Jul-2019

 ----------------------------------------------------------------------
 # opt=calcfc freq=noraman cc-pvtz scrf=(solvent=chloroform,pcm) pbe1pb
 e g09defaults
 ----------------------------------------------------------------------

 -------------------
 Title Card Required
 -------------------
 Symbolic Z-matrix:
 Charge =  0 Multiplicity = 1

 SCF Done:  E(RPBE1PBE) =  -115.635009379     A.U. after    9 cycles
 SCF Done:  E(RPBE1PBE) =  -115.636930126     A.U. after    8 cycles
 SCF Done:  E(RPBE1PBE) =  -115.636937647     A.U. after    7 cycles
 Optimization completed.
    -- Stationary point found.
 Normal termination of Gaussian 16 at Tue Aug 24 16:09:40 2021.

 ---------------------------------------------------------------------
 #N Geom=AllCheck Guess=TCheck SCRF=Check GenChk RPBE1PBE/CC-pVTZ Freq
 ---------------------------------------------------------------------

 Structure from the checkpoint file:  "/local/Gau-88202.chk"
 -------------------
 Title Card Required
 -------------------
 Charge =  0 Multiplicity = 1

                         Standard orientation:
 ---------------------------------------------------------------------
 Center     Atomic      Atomic             Coordinates (Angstroms)
 Number     Number       Type             X           Y           Z
 ---------------------------------------------------------------------
      1          6           0        0.659787   -0.019591    0.000000
      2          1           0        1.085888    0.983801    0.000001
      3          1           0        1.025384   -0.544535   -0.889409
      4          1           0        1.025384   -0.544537    0.889408
      5          8           0       -0.745387    0.122211    0.000000
      6          1           0       -1.132287   -0.754871    0.000000
 ---------------------------------------------------------------------

 SCF Done:  E(RPBE1PBE) =  -115.636937647     A.U. after    1 cycles

 The electronic state is 1-A.
 Alpha  occ. eigenvalues --  -19.20384 -10.25825  -1.04878  -0.70026  -0.52278
 Alpha  occ. eigenvalues --   -0.45153  -0.43953  -0.35009  -0.28899
 Alpha virt. eigenvalues --    0.05034   0.08653   0.12864   0.13105   0.17373
 Alpha virt. eigenvalues --    0.27689   0.28636   0.36312   0.40424   0.46055
 Alpha virt. eigenvalues --    0.47375   0.47879   0.51615   0.54381   0.54623

 Mulliken charges:
               1
     1  C   -0.077609
     2  H    0.098565
     3  H    0.064279
     4  H    0.064279
     5  O   -0.375117
     6  H    0.225602
 Sum of Mulliken charges =   0.00000

 Dipole moment (field-independent basis, Debye):
    X=              0.8176    Y=             -1.6169    Z=              0.0000  Tot=              1.8119
 Quadrupole moment (field-independent basis, Debye-Ang):
   XX=            -12.6776   YY=            -12.0478   ZZ=            -13.6449
   XY=              2.2424   XZ=              0.0000   YZ=              0.0000

  Exact polarizability:      22.553       0.652      20.932       0.000       0.000      19.337
 Approx polarizability:      24.082       0.590      23.369       0.000       0.000      20.696

                      1                      2                      3
                      A                      A                      A
 Frequencies --    306.1109              1060.7713              1100.9466
 Red. masses --      1.0689                 1.5921                 2.3652
 Frc consts  --      0.0590                 1.0555                 1.6891
 IR Inten    --    141.3576               133.4368                20.6886

                      4                      5                      6
                      A                      A                      A
 Frequencies --   1174.0980              1379.1261              1473.6308
 Red. masses --      1.2776                 1.2815                 1.1395
 Frc consts  --      1.0377                 1.4361                 1.4580
 IR Inten    --      0.8046                35.5573                 2.8603

                      7                      8                      9
                      A                      A                      A
 Frequencies --   1482.5853              1502.1789              3008.9993
 Red. masses --      1.0445                 1.0438                 1.0351
 Frc consts  --      1.3527                 1.3877                 5.5215
 IR Inten    --      3.7658                 6.4670                69.1103

                     10                     11                     12
                      A                      A                      A
 Frequencies --   3062.9991              3123.8540              3882.2366
 Red. masses --      1.1050                 1.0990                 1.0665
 Frc consts  --      6.1081                 6.3186                 9.4704
 IR Inten    --     72.6191                37.8000                49.2682

 - Thermochemistry -
 -------------------
 Temperature   298.150 Kelvin.  Pressure   1.00000 Atm.
 Atom     1 has atomic number  6 and mass  12.00000

 Molecular mass:    32.02621 amu.
 Principal axes and moments of inertia in atomic units:
                           1         2         3
     Eigenvalues --    14.02846  72.19320  74.83371
           X            0.99895   0.04589   0.00000
           Y           -0.04589   0.99895   0.00000
           Z            0.00000   0.00000   1.00000
 This molecule is an asymmetric top.
 Rotational symmetry number  1.
 Rotational temperatures (Kelvin)      6.17415     1.19975     1.15742
 Rotational constants (GHZ):         128.64855    24.99877    24.11669
 Zero-point vibrational energy     134924.0 (Joules/Mol)
                                   32.24762 (Kcal/Mol)
 Warning -- explicit consideration of   1 degrees of freedom as
           vibrations may cause significant error
 Vibrational temperatures:    440.42  1526.21  1584.01  1689.26  1984.25
          (Kelvin)           2120.22  2133.11  2161.30  4329.27  4406.97
                             4494.52  5585.67

 Zero-point correction=                           0.051390 (Hartree/Particle)
 Thermal correction to Energy=                    0.054731
 Thermal correction to Enthalpy=                  0.055675
 Thermal correction to Gibbs Free Energy=         0.028634
 Sum of electronic and zero-point Energies=           -115.585548
 Sum of electronic and thermal Energies=              -115.582206
 Sum of electronic and thermal Enthalpies=            -115.581262
 Sum of electronic and thermal Free Energies=         -115.608303

                     E (Thermal)             CV                S
                      KCal/Mol        Cal/Mol-Kelvin    Cal/Mol-Kelvin
 Total                   34.344              8.791             56.912
 Electronic               0.000              0.000              0.000
 Translational            0.889              2.981             36.324
 Rotational               0.889              2.981             18.967
 Vibrational             32.567              2.829              1.622
 Vibration     1          0.696              1.662              1.383

 Optimization completed.
    -- Stationary point found.
 Normal termination of Gaussian 16 at Tue Aug 24 16:09:52 2021.
