 Gaussian 16, Revision C.01,
 Gaussian 16:  ES64L-G16RevC.01  3-Jul-2019

 -----------------------------------------------------------
 # wb97xd/6-311++G(2df,p) scrf=(solvent=dichloromethane,smd)
 -----------------------------------------------------------

 -----------------------
 hydrazide_a_wb97xd_6311
 -----------------------
 Symbolic Z-matrix:
 Charge =  0 Multiplicity = 1

                         Standard orientation:
 ---------------------------------------------------------------------
 Center     Atomic      Atomic             Coordinates (Angstroms)
 Number     Number       Type             X           Y           Z
 ---------------------------------------------------------------------
      1          6           0       -1.239162    1.227254   -0.170997
      2          6           0        0.145234    1.309971   -0.118493
      3          6           0        0.914191    0.161390    0.087907
      4          6           0        0.290384   -1.076913    0.266193
      5          6           0       -1.095428   -1.174009    0.225506
      6          6           0       -1.833698   -0.018486    0.000970
      7          1           0       -1.844845    2.108913   -0.340053
      8          1           0        0.636014    2.269260   -0.240049
      9          1           0        0.875101   -1.969407    0.463174
     10          1           0       -1.591422   -2.125519    0.370769
     11          7           0       -3.296728   -0.116308   -0.051624
     12          8           0       -3.807650   -1.217061    0.108722
     13          8           0       -3.936259    0.907098   -0.255164
     14          6           0        2.408446    0.317485    0.145966
     15          7           0        3.124839   -0.716061   -0.353910
     16          7           0        4.523542   -0.717043   -0.382460
     17          8           0        2.935327    1.323766    0.616178
     18          1           0        2.680082   -1.471812   -0.854611
     19          1           0        4.868340   -0.691412    0.574534
     20          1           0        4.844010    0.135292   -0.838012
 ---------------------------------------------------------------------

 SCF Done:  E(RwB97XD) =  -660.795883145     A.U. after   16 cycles

 The electronic state is 1-A.
 Alpha  occ. eigenvalues --  -19.29495 -19.29485 -19.22686 -14.69009 -14.48989
 Alpha  occ. eigenvalues --  -14.45881 -10.40190 -10.35927 -10.32638 -10.31922
 Alpha  occ. eigenvalues --  -10.31825 -10.31537 -10.31212  -1.35088  -1.17223
 Alpha  occ. eigenvalues --   -1.16021  -1.08401  -1.00223  -0.93469  -0.90159
 Alpha  occ. eigenvalues --   -0.87664  -0.81525  -0.73252  -0.72343  -0.69172
 Alpha  occ. eigenvalues --   -0.66803  -0.64447  -0.64159  -0.62403  -0.60488
 Alpha  occ. eigenvalues --   -0.59662  -0.56699  -0.55220  -0.53505  -0.53314
 Alpha  occ. eigenvalues --   -0.50712  -0.48909  -0.47544  -0.45276  -0.41523
 Alpha  occ. eigenvalues --   -0.41425  -0.39766  -0.37841  -0.36678  -0.36032
 Alpha  occ. eigenvalues --   -0.35683  -0.35305
 Alpha virt. eigenvalues --   -0.04158   0.03133   0.03936   0.04250   0.05551
 Alpha virt. eigenvalues --    0.05704   0.07415   0.07655   0.08095   0.09938
 Alpha virt. eigenvalues --    0.10245   0.10889   0.11921   0.12849   0.13202

 Mulliken charges:
               1
     1  C   -0.463203
     2  C   -0.229438
     3  C    1.000406
     4  C   -0.613388
     5  C   -0.224814
     6  C   -0.034987
     7  H    0.302797
     8  H    0.275659
     9  H    0.283675
    10  H    0.301786
    11  N    0.033643
    12  O   -0.139000
    13  O   -0.136089
    14  C   -0.123893
    15  N   -0.117927
    16  N   -0.655330
    17  O   -0.493540
    18  H    0.378780
    19  H    0.331776
    20  H    0.323086
 Sum of Mulliken charges =   0.00000

 Dipole moment (field-independent basis, Debye):
    X=              4.1746    Y=             -2.3373    Z=             -1.1331  Tot=              4.9167
 Quadrupole moment (field-independent basis, Debye-Ang):
   XX=            -97.6565   YY=            -72.4816   ZZ=            -74.5774
   XY=             -6.6639   XZ=             -2.7573   YZ=             -3.9871

 Normal termination of Gaussian 16 at Sat Oct  9 22:01:20 2021.
