 Gaussian 16, Revision C.01,
 Gaussian 16:  ES64L-G16RevC.01  3-Jul-2019

 -----------------------------------------------------------
 # wb97xd/6-311++G(2df,p) scrf=(solvent=dichloromethane,smd)
 -----------------------------------------------------------

 -----------------------
 hydrazide_b_wb97xd_6311
 -----------------------
 Symbolic Z-matrix:
 Charge =  0 Multiplicity = 1

                         Standard orientation:
 ---------------------------------------------------------------------
 Center     Atomic      Atomic             Coordinates (Angstroms)
 Number     Number       Type             X           Y           Z
 ---------------------------------------------------------------------
      1          6           0        1.108011    1.196830    0.433929
      2          6           0       -0.272433    1.330385    0.355018
      3          6           0       -1.054180    0.288183   -0.147689
      4          6           0       -0.449787   -0.888455   -0.598267
      5          6           0        0.930459   -1.028642   -0.545830
      6          6           0        1.684174    0.016559   -0.021749
      7          1           0        1.723969    1.993097    0.832996
      8          1           0       -0.744523    2.248462    0.687553
      9          1           0       -1.052509   -1.694481   -1.000627
     10          1           0        1.412376   -1.930866   -0.901320
     11          7           0        3.140861   -0.129726    0.047391
     12          8           0        3.637416   -1.173175   -0.357732
     13          8           0        3.793941    0.798233    0.507416
     14          6           0       -2.533209    0.519994   -0.284733
     15          7           0       -3.382189   -0.438218    0.154385
     16          7           0       -2.979508   -1.514775    0.951772
     17          8           0       -2.956277    1.549567   -0.810674
     18          1           0       -4.371643   -0.239115    0.045251
     19          1           0       -3.304085   -2.380272    0.531188
     20          1           0       -3.396586   -1.423923    1.873976
 ---------------------------------------------------------------------

 SCF Done:  E(RwB97XD) =  -660.791246776     A.U. after   16 cycles

 The electronic state is 1-A.
 Alpha  occ. eigenvalues --  -19.29243 -19.29240 -19.22411 -14.68765 -14.48863
 Alpha  occ. eigenvalues --  -14.46116 -10.40148 -10.35531 -10.32287 -10.31495
 Alpha  occ. eigenvalues --  -10.31488 -10.31023 -10.30917  -1.34823  -1.16941
 Alpha  occ. eigenvalues --   -1.15552  -1.08881  -0.99798  -0.92261  -0.90325
 Alpha  occ. eigenvalues --   -0.87338  -0.81898  -0.73041  -0.72185  -0.67925
 Alpha  occ. eigenvalues --   -0.66366  -0.64200  -0.63239  -0.62239  -0.60885
 Alpha  occ. eigenvalues --   -0.60635  -0.56700  -0.54875  -0.53336  -0.53061
 Alpha  occ. eigenvalues --   -0.50218  -0.48439  -0.47602  -0.44868  -0.41307
 Alpha  occ. eigenvalues --   -0.41202  -0.39514  -0.38004  -0.37110  -0.35360
 Alpha  occ. eigenvalues --   -0.35211  -0.34267
 Alpha virt. eigenvalues --   -0.03806   0.03657   0.04273   0.04607   0.05536
 Alpha virt. eigenvalues --    0.05814   0.07118   0.07676   0.08181   0.09526
 Alpha virt. eigenvalues --    0.10109   0.10451   0.11681   0.12737   0.13158

 Mulliken charges:
               1
     1  C   -0.246412
     2  C   -0.192761
     3  C    0.839513
     4  C   -0.563457
     5  C   -0.448314
     6  C   -0.051179
     7  H    0.302252
     8  H    0.284004
     9  H    0.282493
    10  H    0.301274
    11  N    0.036804
    12  O   -0.140553
    13  O   -0.142189
    14  C    0.081309
    15  N   -0.175955
    16  N   -0.706394
    17  O   -0.476706
    18  H    0.385385
    19  H    0.314201
    20  H    0.316685
 Sum of Mulliken charges =   0.00000

 Dipole moment (field-independent basis, Debye):
    X=             -7.1497    Y=             -4.1421    Z=              2.3947  Tot=              8.6029
 Quadrupole moment (field-independent basis, Debye-Ang):
   XX=            -81.6824   YY=            -71.3870   ZZ=            -73.3743
   XY=             19.1674   XZ=            -10.5644   YZ=              4.4190

 Normal termination of Gaussian 16 at Sat Oct  9 22:14:23 2021.
